<?xml version="1.0" encoding="UTF-8"?>

<!-- generated on 2025-10-22 14:17:09 by Eclipse SUMO GUI Version 1.24.0
<sumoConfiguration xmlns:xsi="http://www.w3.org/2001/XMLSchema-instance" xsi:noNamespaceSchemaLocation="http://sumo.dlr.de/xsd/sumoConfiguration.xsd">

    <input>
        <net-file value="network.net.xml"/>
        <route-files value="routes.rou.xml"/>
        <additional-files value="v2x_infrastructure.add.xml"/>
    </input>

    <output>
        <emission-output value="emissions.xml"/>
        <fcd-output value="v2x_traces.xml"/>
    </output>

    <time>
        <begin value="0"/>
        <end value="1000"/>
        <step-length value="0.2"/>
    </time>

    <processing>
        <lateral-resolution value="0.1"/>
    </processing>

    <report>
        <verbose value="true"/>
        <no-step-log value="true"/>
    </report>

    <traci_server>
        <remote-port value="54364"/>
    </traci_server>

    <gui_only>
        <start value="true"/>
        <delay value="200"/>
    </gui_only>

</sumoConfiguration>
-->

<emission-export xmlns:xsi="http://www.w3.org/2001/XMLSchema-instance" xsi:noNamespaceSchemaLocation="http://sumo.dlr.de/xsd/emission_file.xsd">
</emission-export>
